2
Lattice="3.956 0.0 0.0 0.0 3.956 0.0 0.0 0.0 3.956" Properties=species:S:1:pos:R:3:forces:R:3:energies:R:1 energy=15.199620128764302 stress="-0.0961526806812056 -0.13309400442889574 -0.16634076928643063 -0.13309400442889574 -0.17415585602153366 -0.22177074534246569 -0.16634076928643063 -0.22177074534246569 -0.2744831601130373" pbc="T T T"
Al       0.00000000       0.00000000       0.00000000     -20.61517287     -27.48445891     -34.35115020      17.34750086
N        0.30000000       0.40000000       0.50000000      20.61517287      27.48445891      34.35115020      -2.14788074
2
Lattice="4.060304362516892 0.14400706797502125 0.17999342364173437 0.14400706797502125 4.144689007989949 0.2399844252506199 0.1799934236417344 0.2399844252506199 4.253247922370063" Properties=species:S:1:pos:R:3:forces:R:3:energies:R:1 energy=1.941212375156469 stress="-0.01938698512271631 -0.029415793057367984 -0.036783018747472834 -0.029415793057367984 -0.037238721099243144 -0.049070661314272186 -0.036783018747472834 -0.049070661314272186 -0.06015784219033514" pbc="T T T"
Al      -0.09765462      -0.13020678      -0.16276018      -2.93190368      -3.90790069      -4.88362621       3.28856742
N        0.44287476       0.59053790       0.73824444       2.93190368       3.90790069       4.88362621      -1.34735504
2
Lattice="4.1132317209096385 0.22948626578533157 0.28706389074064853 0.22948626578533168 4.250872851678167 0.38304805190107155 0.2870638907406468 0.3830480519010714 4.428010774758333" Properties=species:S:1:pos:R:3:forces:R:3:energies:R:1 energy=1.2117819940412817 stress="-0.0035492335234584243 -0.008917525284552948 -0.011196112518178267 -0.008917525284552948 -0.009505415891857234 -0.014999445566080589 -0.011196112518178267 -0.014999445566080589 -0.017102042498598365" pbc="T T T"
Al      -0.12119184      -0.16170498      -0.20231473      -0.86235134      -1.15033762      -1.43938531       2.22109294
N        0.49260133       0.65733669       0.82247240       0.86235134       1.15033762       1.43938531      -1.00931094
2
Lattice="4.125388574341889 0.27232856043009895 0.3412007543213113 0.2723285604300989 4.293330407552625 0.4560274946141244 0.3412007543213095 0.4560274946141246 4.509536143444161" Properties=species:S:1:pos:R:3:forces:R:3:energies:R:1 energy=1.1179687458782057 stress="0.00257501432170723 -0.0014219046436650582 -0.001812368046502602 -0.0014219046436650582 0.0008769801871414609 -0.00253115631918729 -0.001812368046502602 -0.00253115631918729 -0.0011125906400296934" pbc="T T T"
Al      -0.13290192      -0.17758508      -0.22253651      -0.16223209      -0.21600916      -0.26970677       1.92194997
N        0.51640757       0.68998257       0.86448274       0.16223209       0.21600916       0.26970677      -0.80398123
2
Lattice="4.1107915251763645 0.28009493633335014 0.3513360235442267 0.28009493633334953 4.288511625280093 0.47050739582700846 0.35133602354422416 0.47050739582700957 4.5166484888812795" Properties=species:S:1:pos:R:3:forces:R:3:energies:R:1 energy=1.1129254287854207 stress="0.003754304224794477 -0.00020670222602604382 -0.0002719143113053602 -0.00020670222602604382 0.002717664863205132 -0.00048312480151907364 -0.0002719143113053602 -0.00048312480151907364 0.0016070010369872653" pbc="T T T"
Al      -0.13538796      -0.18114281      -0.22725760      -0.05157430      -0.06824194      -0.08424015       1.87553033
N        0.51985294       0.69547214       0.87233546       0.05157430       0.06824194       0.08424015      -0.76260491
2
Lattice="4.072737792628437 0.28540557787546417 0.3586491095958693 0.285405577875464 4.264132898265082 0.4822315944500029 0.35864910959586693 0.4822315944500052 4.508392466876534" Properties=species:S:1:pos:R:3:forces:R:3:energies:R:1 energy=1.1074092983156762 stress="0.004925658150117831 0.000546751544652746 0.0007950531884954633 0.000546751544652746 0.004327549281712962 0.000929093405948 0.0007950531884954633 0.000929093405948 0.003686664327561261" pbc="T T T"
Al      -0.13767557      -0.18467939      -0.23219887       0.02271287       0.03113128       0.04106913       1.83874096
N        0.52071605       0.69842829       0.87797329      -0.02271287      -0.03113128      -0.04106913      -0.73133166
2
Lattice="3.828064500726597 0.3054836262992952 0.38612713569703305 0.30548362629929754 4.092727079830549 0.5311666674556959 0.3861271356970324 0.5311666674556982 4.426406495473699" Properties=species:S:1:pos:R:3:forces:R:3:energies:R:1 energy=1.0647322625706857 stress="0.011373090948012107 0.0033922050475127035 0.003971519115636607 0.0033922050475127035 0.011804147592773897 0.005898994339049758 0.003971519115636607 0.005898994339049758 0.013765606909978141" pbc="T T T"
Al      -0.14802639      -0.20167099      -0.25693461       0.23556189       0.32638299       0.42564909       1.67520539
N        0.51801536       0.70579618       0.89937850      -0.23556189      -0.32638299      -0.42564909      -0.61047313
2
Lattice="3.1678426774076858 0.36712555956381676 0.4690310102197133 0.36712555956382703 3.6263144280487696 0.6877868055014054 0.46903101021971977 0.6877868055014131 4.231117249196735" Properties=species:S:1:pos:R:3:forces:R:3:energies:R:1 energy=0.901681579149444 stress="0.03838154031188206 0.007984961921406611 0.011010402396849946 0.007984961921406611 0.040682569171207564 0.017578502579685636 0.011010402396849946 0.017578502579685636 0.042799878370565494" pbc="T T T"
Al      -0.17852685      -0.25573099      -0.34018361       0.31117809       0.52286649       0.82470580       1.19498455
N        0.51515944       0.73716598       0.98006800      -0.31117809      -0.52286649      -0.82470580      -0.29330297
2
Lattice="2.627562868198737 0.4120514019414317 0.5281196352350472 0.4120514019414459 3.2141929894478336 0.8085930110092596 0.528119635235058 0.8085930110092715 4.0566042970898195" Properties=species:S:1:pos:R:3:forces:R:3:energies:R:1 energy=0.4629641904186861 stress="0.020665165814125003 -0.006776496580504788 -0.004579628182626135 -0.006776496580504788 0.04693246160015882 0.002890143502096193 -0.004579628182626135 0.002890143502096193 0.042436415960910974" pbc="T T T"
Al      -0.20395534      -0.30366201      -0.41892032      -0.03035289       0.01697217       0.18190371       0.83659414
N        0.51162704       0.76210214       1.05344389       0.03035289      -0.01697217      -0.18190371      -0.37362995
2
Lattice="2.190598065103602 0.44838530784135683 0.5819201306911295 0.44838530784137404 2.831649030187833 0.9013257530150645 0.5819201306911445 0.9013257530150792 3.853746965208391" Properties=species:S:1:pos:R:3:forces:R:3:energies:R:1 energy=0.6325460675596464 stress="-0.20046851496960538 -0.010719069257234105 -0.032270095119279356 -0.010719069257234105 -0.07330743827938128 -0.01829444054492374 -0.032270095119279356 -0.01829444054492374 -0.048612491734735766" pbc="T T T"
Al      -0.22623925      -0.34415409      -0.49040850       0.29713566       0.28418790      -0.84546369       1.17797511
N        0.51124774       0.77839020       1.11274920      -0.29713566      -0.28418790       0.84546369      -0.54542904
2
Lattice="2.5331982662031827 0.45041181873445896 0.5795830031843068 0.45041181873447433 3.0676276343163615 0.8530249068157939 0.5795830031843192 0.8530249068158067 3.9650507511933153" Properties=species:S:1:pos:R:3:forces:R:3:energies:R:1 energy=0.33766285706532284 stress="-0.0076651109354983265 -0.008108897298263388 -0.011740766603265042 -0.008108897298263388 0.028807918391814815 -0.003970150733604074 -0.011740766603265042 -0.003970150733604074 0.030445244613789165" pbc="T T T"
Al      -0.22044996      -0.32051557      -0.44738424      -0.00282235      -0.01699979      -0.08561336       0.79467219
N        0.53134877       0.77266093       1.07873162       0.00282235       0.01699979       0.08561336      -0.45700933
2
Lattice="2.5242314781510453 0.4649004925715908 0.6023715031251603 0.46490049257160687 3.0023983080452283 0.8568802050860195 0.6023715031251735 0.8568802050860317 3.8953465443102835" Properties=species:S:1:pos:R:3:forces:R:3:energies:R:1 energy=0.2995743538171587 stress="-0.02085289040325017 -0.006958198539863387 -0.012022687580171299 -0.006958198539863387 0.01383659445121606 -0.006437394993324736 -0.012022687580171299 -0.006437394993324736 0.019086288819966817" pbc="T T T"
Al      -0.22574170      -0.32094783      -0.44950307       0.02567303       0.00808589      -0.22202794       0.79932610
N        0.54030575       0.76808372       1.07415849      -0.02567303      -0.00808589       0.22202794      -0.49975175
2
Lattice="2.5824962650433325 0.5023086763281064 0.6615372935826945 0.502308676328122 2.8906648277272216 0.8584133000996289 0.6615372935827074 0.8584133000996406 3.7355887121335836" Properties=species:S:1:pos:R:3:forces:R:3:energies:R:1 energy=0.2499373468038304 stress="-0.029111787779944512 -0.001407474792327389 -0.01137202661340457 -0.001407474792327389 -0.01330860925290159 -0.007630297702981708 -0.01137202661340457 -0.007630297702981708 -0.002023468343308286" pbc="T T T"
Al      -0.23841807      -0.31737802      -0.44681820       0.05633911       0.12380012      -0.39860689       0.80378883
N        0.56866099       0.75624688       1.05592358      -0.05633911      -0.12380012       0.39860689      -0.55385148
2
Lattice="2.6607694566212934 0.5229019224575054 0.6996169977110213 0.5229019224575219 2.8656629609887205 0.8579737655423144 0.6996169977110346 0.857973765542326 3.6645203077371105" Properties=species:S:1:pos:R:3:forces:R:3:energies:R:1 energy=0.22997997450274776 stress="-0.02263836204319326 0.0002379176739811597 -0.01027989166727538 0.0002379176739811597 -0.021552985469464075 -0.0062282999793481265 -0.01027989166727538 -0.0062282999793481265 -0.00868019891610555" pbc="T T T"
Al      -0.24546955      -0.31357901      -0.44327398       0.03262456       0.16504245      -0.37595953       0.79237879
N        0.58854339       0.75142598       1.04624030      -0.03262456      -0.16504245       0.37595953      -0.56239881
2
Lattice="2.826968216903714 0.553580081626147 0.7644056534656423 0.553580081626164 2.8810490735089154 0.8581582278110117 0.7644056534656563 0.85815822781102 3.5898485247145078" Properties=species:S:1:pos:R:3:forces:R:3:energies:R:1 energy=0.2128111799757948 stress="0.006538945799382131 7.159888791237285e-05 -0.008722127696105591 7.159888791237285e-05 -0.008427976970040912 -0.004052877359504535 -0.008722127696105591 -0.004052877359504535 -0.0010780961044622372" pbc="T T T"
Al      -0.25573342      -0.30650385      -0.43693869      -0.02797328       0.14131341      -0.23463613       0.76979550
N        0.62270140       0.74825632       1.03539907       0.02797328      -0.14131341       0.23463613      -0.55698432
2
Lattice="2.827822883575797 0.5545327055722631 0.7757531162157741 0.5545327055722797 2.8839192355385608 0.8608247454081226 0.7757531162157875 0.8608247454081317 3.579111009815478" Properties=species:S:1:pos:R:3:forces:R:3:energies:R:1 energy=0.2096985245203098 stress="0.005074333142993584 0.0003591189703348459 -0.008310616237929268 0.0003591189703348459 -0.008775064850493664 -0.003909863385938028 -0.008310616237929268 -0.003909863385938028 -0.0028509435588743377" pbc="T T T"
Al      -0.25690426      -0.30589135      -0.43842396      -0.02151134       0.13867146      -0.22242329       0.76733032
N        0.62546758       0.74834329       1.03665736       0.02151134      -0.13867146       0.22242329      -0.55763179
2
Lattice="2.8445990873550144 0.5580456914048126 0.8954272441516538 0.5580456914048347 2.9434723919091903 0.8908544521349329 0.8954272441516705 0.8908544521349367 3.504254402443987" Properties=species:S:1:pos:R:3:forces:R:3:energies:R:1 energy=0.19093453351499923 stress="-0.0011779343279087423 0.003283300017628407 -0.005204206850151031 0.003283300017628407 -0.001354170288902246 -0.003467862459451969 -0.005204206850151031 -0.003467862459451969 -0.015466935221183014" pbc="T T T"
Al      -0.26832861      -0.29809675      -0.45468849       0.06079704       0.06728087      -0.04429263       0.75011078
N        0.65364499       0.75063211       1.05557250      -0.06079704      -0.06728087       0.04429263      -0.55917625
2
Lattice="2.8247311700462117 0.5476132061978091 0.9210407733541666 0.5476132061978325 2.969385143794771 0.9019786501164752 0.9210407733541844 0.9019786501164773 3.522855231451362" Properties=species:S:1:pos:R:3:forces:R:3:energies:R:1 energy=0.18631589228595224 stress="-0.0012533403802744004 0.003553752936691499 -0.004448950123912358 0.003553752936691499 0.005248920594210703 -0.004481921403497618 -0.004448950123912358 -0.004481921403497618 -0.013037039042526285" pbc="T T T"
Al      -0.26858482      -0.29576074      -0.46127950       0.09285014       0.03636250      -0.02553165       0.74082560
N        0.65457698       0.75153105       1.06758165      -0.09285014      -0.03636250       0.02553165      -0.55450970
2
Lattice="2.7827670688400556 0.5209336421229683 0.9772266622904376 0.5209336421229948 3.0040763002372195 0.9298722974790149 0.9772266622904566 0.9298722974790185 3.578386474574057" Properties=species:S:1:pos:R:3:forces:R:3:energies:R:1 energy=0.17809995531449285 stress="-0.0023015702282979653 0.004205189694027512 -0.003243905804394564 0.004205189694027512 0.013866771369019664 -0.005923173230580337 -0.003243905804394564 -0.005923173230580337 -0.008634218744751954" pbc="T T T"
Al      -0.26851803      -0.28995678      -0.47635249       0.15298509      -0.00213132      -0.01332446       0.72382118
N        0.65573161       0.75073705       1.09675445      -0.15298509       0.00213132       0.01332446      -0.54572123
2
Lattice="2.7426155940444046 0.4798351178163277 1.0784940345383174 0.47983511781635646 3.032542575870249 0.9790284291272816 1.0784940345383387 0.9790284291272874 3.6702984900376054" Properties=species:S:1:pos:R:3:forces:R:3:energies:R:1 energy=0.16631136310897943 stress="-0.003110976495064749 0.005357743467307655 -0.0006462993133694115 0.005357743467307655 0.02181306078712616 -0.00754185789073197 -0.0006462993133694115 -0.00754185789073197 -0.0029831091244466807" pbc="T T T"
Al      -0.27042570      -0.27923393      -0.50051611       0.22641161      -0.03393876      -0.00641321       0.70147726
N        0.66323807       0.74598867       1.14518468      -0.22641161       0.03393876       0.00641321      -0.53516589
2
Lattice="2.7113691736824497 0.41887286174256094 1.2347974160159108 0.41887286174259475 3.0384531162687614 1.0579717464670866 1.2347974160159372 1.057971746467093 3.8274085047445205" Properties=species:S:1:pos:R:3:forces:R:3:energies:R:1 energy=0.14657973103990463 stress="-0.0016691599544630526 0.009330256036550438 0.0010446975404367134 0.009330256036550438 0.02846184495728112 -0.006666539465248268 0.0010446975404367134 -0.006666539465248268 0.003561831824656282" pbc="T T T"
Al      -0.27529821      -0.26305415      -0.53635043       0.29147176      -0.05748777      -0.02542788       0.66770409
N        0.67933224       0.73576117       1.22071144      -0.29147176       0.05748777       0.02542788      -0.52112436
2
Lattice="2.6874818325330767 0.2708816818481039 1.6911081952670193 0.2708816818481504 3.0565749969738127 1.2760792683355346 1.6911081952670592 1.2760792683355429 4.338196094525359" Properties=species:S:1:pos:R:3:forces:R:3:energies:R:1 energy=0.18473778997921486 stress="-0.03475434856082627 0.010560137803601754 0.023345574936416074 0.010560137803601754 0.010323349919049339 0.004456178336257147 0.023345574936416074 0.004456178336257147 0.0040024178156875005" pbc="T T T"
Al      -0.31036413      -0.22567498      -0.64408344       0.41989078      -0.20227021      -0.07537234       0.73152122
N        0.75529622       0.71655823       1.44966034      -0.41989078       0.20227021       0.07537234      -0.54678343
2
Lattice="2.714819961385952 0.3649144118070314 1.3441736770258061 0.36491441180706735 2.9964137394038066 1.1187432682957752 1.3441736770258361 1.1187432682957852 3.992945133017856" Properties=species:S:1:pos:R:3:forces:R:3:energies:R:1 energy=0.12099411228739743 stress="0.005774196430918025 0.007167989381604048 0.0010740189841057077 0.007167989381604048 0.029076809537786318 -0.004297222602574275 0.0010740189841057077 -0.004297222602574275 0.019206457002136947" pbc="T T T"
Al      -0.27586998      -0.25113447      -0.56098022       0.25162607      -0.04890013      -0.05677377       0.61941453
N        0.68853393       0.72317983       1.28070266      -0.25162607       0.04890013       0.05677377      -0.49842042
2
Lattice="2.7444959547712613 0.35932258510235626 1.393285995068605 0.3593225851023934 2.972449091583656 1.134563729547039 1.3932859950686356 1.134563729547048 4.001572224389804" Properties=species:S:1:pos:R:3:forces:R:3:energies:R:1 energy=0.108209753573285 stress="0.005024411408298584 0.006970522011327961 0.0029684111088147166 0.006970522011327961 0.027106643397433548 -0.003123865302024205 0.0029684111088147166 -0.003123865302024205 0.017579773435527527" pbc="T T T"
Al      -0.27966982      -0.24654946      -0.56578145       0.25275306      -0.04168419      -0.04758399       0.60510874
N        0.70022614       0.71774721       1.29191830      -0.25275306       0.04168419       0.04758399      -0.49689899
2
Lattice="2.885989445703975 0.34872817025387015 1.5498588334064045 0.34872817025391356 2.804300525380684 1.1788753276253225 1.5498588334064356 1.1788753276253323 4.000115399784053" Properties=species:S:1:pos:R:3:forces:R:3:energies:R:1 energy=0.07116592557581014 stress="-0.005473523517557528 0.004464245511097521 0.011547080581360964 0.004464245511097521 0.005002950492778604 -0.0016108897771579356 0.011547080581360964 -0.0016108897771579356 0.005822389333524533" pbc="T T T"
Al      -0.28832220      -0.23177642      -0.57137805       0.20864149       0.04411442      -0.02969697       0.55901687
N        0.73832662       0.69076942       1.31368480      -0.20864149      -0.04411442       0.02969697      -0.48785094
2
Lattice="2.926946423845273 0.3646816896215917 1.5117819426401733 0.3646816896216346 2.749374330646055 1.163218048777039 1.5117819426402033 1.1632180487770496 3.9330166246693286" Properties=species:S:1:pos:R:3:forces:R:3:energies:R:1 energy=0.06308638516367515 stress="-0.004795473988651593 0.006648525840039942 0.007695404340064511 0.006648525840039942 -0.0020322359446458536 -0.00421344550586154 0.007695404340064511 -0.00421344550586154 -0.0009954217956818544" pbc="T T T"
Al      -0.28224530      -0.23319872      -0.55592816       0.16329510       0.11182137      -0.03489963       0.55528290
N        0.73215621       0.68586891       1.28528360      -0.16329510      -0.11182137       0.03489963      -0.49219651
2
Lattice="2.9512739048626555 0.35218015143625947 1.5002232511473115 0.3521801514363014 2.70095603781603 1.1754833126132356 1.5002232511473397 1.1754833126132487 3.9578091364535393" Properties=species:S:1:pos:R:3:forces:R:3:energies:R:1 energy=0.05889497984738323 stress="-0.0011041467314635886 0.005056859912575019 0.0055485481457386845 0.005056859912575019 -0.008122306271542881 -0.002781886030847041 0.0055485481457386845 -0.002781886030847041 0.0042204296814030385" pbc="T T T"
Al      -0.27374816      -0.23222224      -0.55103496       0.09854924       0.15903077      -0.06821512       0.54855387
N        0.72277896       0.68059891       1.28388755      -0.09854924      -0.15903077       0.06821512      -0.48965889
2
Lattice="2.9484762097260266 0.3462538992536138 1.4904872879399593 0.3462538992536555 2.7172927142698082 1.1830229335024847 1.4904872879399889 1.1830229335024984 3.9637411414182715" Properties=species:S:1:pos:R:3:forces:R:3:energies:R:1 energy=0.05679591701846509 stress="0.0031197231776962145 0.004247072851371166 0.005185271569696895 0.004247072851371166 -0.0030122982228430674 -0.0027259150630347196 0.005185271569696895 -0.0027259150630347196 0.009404083118096878" pbc="T T T"
Al      -0.27162907      -0.23286349      -0.55103405       0.09061787       0.14568664      -0.06383381       0.54225969
N        0.71861796       0.68339553       1.28466043      -0.09061787      -0.14568664       0.06383381      -0.48546377
2
Lattice="2.9650575861248267 0.3311310933053219 1.4712637676315725 0.3311310933053633 2.7487156171819276 1.2150144330803592 1.471263767631604 1.2150144330803732 3.942920984934644" Properties=species:S:1:pos:R:3:forces:R:3:energies:R:1 energy=0.05190537541757889 stress="0.010362594624456848 0.0018871625955548344 0.004780250220543999 0.0018871625955548344 0.0031524382892719966 0.0009840749290496954 0.004780250220543999 0.0009840749290496954 0.011951121727934014" pbc="T T T"
Al      -0.26553903      -0.23384154      -0.54840654       0.06116995       0.13755664      -0.04394528       0.52897522
N        0.70982659       0.69044741       1.28117838      -0.06116995      -0.13755664       0.04394528      -0.47706984
2
Lattice="2.928297841550996 0.3193299044264954 1.4250559359341477 0.31932990442653597 2.785355732436614 1.2344064746211145 1.4250559359341795 1.2344064746211274 3.917559433281456" Properties=species:S:1:pos:R:3:forces:R:3:energies:R:1 energy=0.04856325238561321 stress="0.008936241576487714 0.0010949370168774 0.003167208402376293 0.0010949370168774 0.005247183926429977 0.0022875418496896573 0.003167208402376293 0.0022875418496896573 0.01113981888229309" pbc="T T T"
Al      -0.25936943      -0.23737500      -0.54729368       0.06548184       0.13088451      -0.03203777       0.52712369
N        0.69383588       0.69924166       1.27531671      -0.06548184      -0.13088451       0.03203777      -0.47856044
2
Lattice="2.8933983601310174 0.3100787373823932 1.378014984091913 0.3100787373824326 2.8155486543652195 1.2538023279882302 1.3780149840919422 1.2538023279882398 3.8703756457340877" Properties=species:S:1:pos:R:3:forces:R:3:energies:R:1 energy=0.045650247971014135 stress="0.003697780740546132 0.001687309386961067 0.002117500790423378 0.001687309386961067 0.0004429117252529232 0.0015551120437984087 0.002117500790423378 0.0015551120437984087 0.0022740272705069147" pbc="T T T"
Al      -0.25314712      -0.24053248      -0.54483762       0.07260389       0.13740955      -0.01156583       0.53031280
N        0.67808607       0.70720190       1.26529092      -0.07260389      -0.13740955       0.01156583      -0.48466256
2
Lattice="2.8380687480331552 0.28532396604394045 1.3178608412638295 0.2853239660439773 2.863080495261652 1.2943358638723665 1.3178608412638564 1.2943358638723736 3.842975419359805" Properties=species:S:1:pos:R:3:forces:R:3:energies:R:1 energy=0.04358683203016378 stress="-0.000608328350244742 0.0006037144159734293 0.0011859810512591532 0.0006037144159734293 -0.0021409381736459763 0.0017175574856633504 0.0011859810512591532 0.0017175574856633504 -0.003139492493299379" pbc="T T T"
Al      -0.24240518      -0.24452677      -0.54493857       0.07142908       0.13190828       0.00894494       0.52871215
N        0.65304234       0.71924803       1.26146545      -0.07142908      -0.13190828      -0.00894494      -0.48512532
2
Lattice="2.822635759798412 0.2759128607745259 1.3022330805536064 0.27591286077456234 2.876447175190275 1.3097932201217672 1.3022330805536322 1.3097932201217737 3.849863528629478" Properties=species:S:1:pos:R:3:forces:R:3:energies:R:1 energy=0.04307694010018692 stress="-9.482353973654799e-05 -0.0003504807629506976 0.0010848545594362043 -0.0003504807629506976 -0.0009631177317310747 0.002484670320489682 0.0010848545594362043 0.002484670320489682 -0.0015855164764192976" pbc="T T T"
Al      -0.23842616      -0.24531827      -0.54569665       0.06554472       0.12674354       0.00691301       0.52547062
N        0.64496621       0.72263104       1.26347192      -0.06554472      -0.12674354      -0.00691301      -0.48239368
2
Lattice="2.819954999864822 0.27457710925390866 1.3008758746072493 0.27457710925394274 2.8763149846434617 1.3141774842746607 1.3008758746072735 1.3141774842746692 3.86781174964954" Properties=species:S:1:pos:R:3:forces:R:3:energies:R:1 energy=0.04261615181807343 stress="0.001871109614751353 -0.000755295550935216 0.0012227431141278175 -0.000755295550935216 0.0009652502527723864 0.0028152130415863017 0.0012227431141278175 0.0028152130415863017 0.001669676381728864" pbc="T T T"
Al      -0.23677747      -0.24477351      -0.54627326       0.06037272       0.12301984      -0.00383394       0.52213606
N        0.64280762       0.72252575       1.26665740      -0.06037272      -0.12301984       0.00383394      -0.47951991
2
Lattice="2.815858925620019 0.2764109172033668 1.2975480374113524 0.276410917203399 2.8760448038413045 1.316521881452874 1.2975480374113755 1.3165218814528845 3.8788634600235175" Properties=species:S:1:pos:R:3:forces:R:3:energies:R:1 energy=0.042286119475403394 stress="0.002881725830382443 -0.0007291422274173938 0.0010779924000556562 -0.0007291422274173938 0.0020633045099692966 0.0028180848359809843 0.0010779924000556562 0.0028180848359809843 0.0035083786612198973" pbc="T T T"
Al      -0.23522133      -0.24408507      -0.54620294       0.05843258       0.12155904      -0.01173203       0.52067631
N        0.64070567       0.72224537       1.26796859      -0.05843258      -0.12155904       0.01173203      -0.47839019
2
Lattice="2.808319796702948 0.2838616056777702 1.2939697641886805 0.28386160567780006 2.8744808961148585 1.3226356863768884 1.2939697641886985 1.322635686376904 3.8978371672066294" Properties=species:S:1:pos:R:3:forces:R:3:energies:R:1 energy=0.041546237032560995 stress="0.0037909195057067393 -0.0005465211921508231 0.0008080263941742217 -0.0005465211921508231 0.0031628320796914917 0.002743803048278146 0.0008080263941742217 0.002743803048278146 0.006030730788240156" pbc="T T T"
Al      -0.23203745      -0.24165469      -0.54588798       0.05749128       0.12076644      -0.02584024       0.51886645
N        0.63725116       0.72099460       1.27039854      -0.05749128      -0.12076644       0.02584024      -0.47732021
2
Lattice="2.79826382208681 0.30493102535066297 1.291784541795595 0.3049310253506865 2.8745986649091546 1.3408230403305694 1.2917845417956018 1.3408230403305985 3.9257964643385677" Properties=species:S:1:pos:R:3:forces:R:3:energies:R:1 energy=0.039775115697357366 stress="0.004492631511526329 -0.00020652496407020288 0.00030440978828879536 -0.00020652496407020288 0.004145926880751541 0.0026099932843757618 0.00030440978828879536 0.0026099932843757618 0.009305391350964417" pbc="T T T"
Al      -0.22505215      -0.23472653      -0.54450647       0.05894021       0.12034127      -0.04729143       0.51622715
N        0.63135747       0.71797484       1.27422406      -0.05894021      -0.12034127       0.04729143      -0.47645203
2
Lattice="2.7894078698440907 0.37343960938274123 1.3010717632352948 0.37343960938275067 2.884616892131375 1.4012072231170696 1.301071763235268 1.401207223117138 3.978456615681442" Properties=species:S:1:pos:R:3:forces:R:3:energies:R:1 energy=0.03461664667363551 stress="0.0065694520633852475 0.0010120158960337082 0.00011189042930996833 0.0010120158960337082 0.006291426090235419 0.0031687282462952828 0.00011189042930996833 0.0031687282462952828 0.014453737504240257" pbc="T T T"
Al      -0.20516618      -0.21153475      -0.53854597       0.06550733       0.11166974      -0.08482839       0.50957884
N        0.61890079       0.70862329       1.28172917      -0.06550733      -0.11166974       0.08482839      -0.47496219
2
Lattice="2.780384224944975 0.4608186974589599 1.3130136662277143 0.4608186974589502 2.9158916825714662 1.4879172475676363 1.313013666227647 1.487917247567751 4.0122996792089785" Properties=species:S:1:pos:R:3:forces:R:3:energies:R:1 energy=0.029814688364872444 stress="0.008686481697617512 0.0017615511544938065 0.0010804539832938293 0.0017615511544938065 0.008329036673546461 0.003322917124388574 0.0010804539832938293 0.003322917124388574 0.013526155662108328" pbc="T T T"
Al      -0.17750110      -0.17982488      -0.52822248       0.06989971       0.07460411      -0.11201140       0.50285792
N        0.60089584       0.69766131       1.28535616      -0.06989971      -0.07460411       0.11201140      -0.47304323
2
Lattice="2.729666592499375 0.5349842088584787 1.2928141082389344 0.534984208858448 2.9704899523514734 1.5941220877160516 1.2928141082388225 1.5941220877162114 4.031689682424374" Properties=species:S:1:pos:R:3:forces:R:3:energies:R:1 energy=0.025167048706907336 stress="0.003623097241299415 -0.00355155173662747 -0.002410411277860952 -0.00355155173662747 -0.000583329795632076 0.004454220228325478 -0.002410411277860952 0.004454220228325478 -0.0010081629220613632" pbc="T T T"
Al      -0.14264669      -0.14720864      -0.51678296       0.06802633      -0.00626905      -0.14437550       0.49934789
N        0.56714131       0.68961316       1.28557414      -0.06802633       0.00626905       0.14437550      -0.47418084
2
Lattice="2.7111349176644217 0.599926124105784 1.3396307012438629 0.5999261241057448 2.982913618645611 1.6125627592714051 1.3396307012437312 1.6125627592715912 4.05506618237072" Properties=species:S:1:pos:R:3:forces:R:3:energies:R:1 energy=0.02385379259266851 stress="-0.01050748572754133 6.286743178799522e-05 -0.0006708721841888372 6.286743178799522e-05 -0.007803801764439373 0.00423156462101771 -0.0006708721841888372 0.00423156462101771 -0.008583553087662133" pbc="T T T"
Al      -0.13563520      -0.12562988      -0.51563540       0.08410147      -0.04820542      -0.15889107       0.50560632
N        0.57120807       0.67654613       1.29279602      -0.08410147       0.04820542       0.15889107      -0.48175253
2