4
Lattice="3.0 0.0 0.0 0.0 3.0 0.0 0.0 0.0 3.0" Properties=species:S:1:pos:R:3:forces:R:3:energies:R:1 energy=38.94474480479202 stress="-4.12008453232623 1.0973732210994023e-16 -2.518561491047809e-16 1.0973732210994023e-16 -4.120084532326262 -1.2040265903631616e-16 -2.518561491047809e-16 -1.2040265903631616e-16 -0.2532528832558107" pbc="T T T"
Cu       0.00000000       0.00000000       0.00000000       0.00000000       0.00000000       0.00000000       0.96179128
Cu       0.00000000       1.50000000       1.50000000      -0.00000000       0.00000000       0.00000000      10.39763799
Cu       1.50000000       0.00000000       1.50000000       0.00000000      -0.00000000       0.00000000      10.39763799
Cu       1.50000000       1.50000000       1.50000000      -0.00000000       0.00000000      -0.00000000      17.18767754
4
Lattice="3.6642082744805045 -1.9519036589647047e-17 4.084454241497055e-17 -1.951903658964705e-17 3.66420827448051 1.9526191960626246e-17 4.0844542414970554e-17 1.9526191960626243e-17 3.037108361044207" Properties=species:S:1:pos:R:3:forces:R:3:energies:R:1 energy=9.752287127821312 stress="-0.9838742206659947 5.44527272148574e-18 -0.0 5.44527272148574e-18 -0.9838742206659853 2.450372724668583e-17 -0.0 2.450372724668583e-17 0.04341160871885832" pbc="T T T"
Cu       0.00000000       0.00000000       0.00000000      -0.00000000       0.00000000       0.00000000       0.04406010
Cu      -0.00000000       1.83210414       1.51855418      -0.00000000      -0.00000000      -0.00000000       2.49519317
Cu       1.83210414      -0.00000000       1.51855418      -0.00000000      -0.00000000      -0.00000000       2.49519317
Cu       1.83210414       1.83210414       1.51855418      -0.00000000       0.00000000       0.00000000       4.71784069
4
Lattice="4.122904248729054 7.55802979826888e-17 -1.9049332449847994e-16 5.013464532994579e-17 4.122904248729001 -8.492542539227609e-17 -1.2272831343713494e-16 -8.597616177108537e-17 2.783394813199939" Properties=species:S:1:pos:R:3:forces:R:3:energies:R:1 energy=3.22130578262151 stress="-0.31327518491714884 6.124391232666212e-17 6.113899191019278e-17 6.124391232666212e-17 -0.31327518491720485 1.0082811278803912e-17 6.113899191019278e-17 1.0082811278803912e-17 0.08087765729382755" pbc="T T T"
Cu      -0.00000000       0.00000000       0.00000000      -0.00000000      -0.00000000       0.00000000       0.03388197
Cu       0.00000000       2.06145212       1.39169741       0.00000000       0.00000000       0.00000000       0.80104685
Cu       2.06145212      -0.00000000       1.39169741       0.00000000      -0.00000000      -0.00000000       0.80104685
Cu       2.06145212       2.06145212       1.39169741       0.00000000       0.00000000      -0.00000000       1.58533013
4
Lattice="4.471030104630022 -3.042279642731044e-16 -2.2014676401312113e-16 -1.94347117108558e-16 4.471030104630217 4.913409683519394e-16 -4.478042215171008e-16 -2.0459451129713204e-16 2.4395366891575674" Properties=species:S:1:pos:R:3:forces:R:3:energies:R:1 energy=1.4416300345978499 stress="-0.08559385796742415 9.238348424729407e-17 -4.699055032201502e-17 9.238348424729407e-17 -0.0855938579673106 -4.6107037078208624e-17 -4.699055032201502e-17 -4.6107037078208624e-17 -0.01590977968402919" pbc="T T T"
Cu      -0.00000000      -0.00000000       0.00000000       0.00000000      -0.00000000       0.00000000       0.08835720
Cu       0.00000000       2.23551505       1.21976834      -0.00000000       0.00000000      -0.00000000       0.35848320
Cu       2.23551505      -0.00000000       1.21976834      -0.00000000       0.00000000      -0.00000000       0.35848320
Cu       2.23551505       2.23551505       1.21976834       0.00000000      -0.00000000       0.00000000       0.63630643
4
Lattice="4.5817256330469665 -3.245723689762759e-16 1.6404371081750299e-16 -5.90659601318586e-16 4.581725633046742 -4.079943577578727e-16 -3.7971245297678567e-16 -3.085188035999438e-16 2.4113008850554447" Properties=species:S:1:pos:R:3:forces:R:3:energies:R:1 energy=1.3151709259861608 stress="-0.03121683666591402 1.5575180391079085e-18 -3.9325421557188225e-17 1.5575180391079085e-18 -0.031216836666021232 -2.5905834044145582e-17 -3.9325421557188225e-17 -2.5905834044145582e-17 -0.02812566387496182" pbc="T T T"
Cu      -0.00000000      -0.00000000       0.00000000      -0.00000000       0.00000000      -0.00000000       0.13043688
Cu      -0.00000000       2.29086282       1.20565044       0.00000000       0.00000000       0.00000000       0.32681789
Cu       2.29086282       0.00000000       1.20565044       0.00000000      -0.00000000       0.00000000       0.32681789
Cu       2.29086282       2.29086282       1.20565044      -0.00000000       0.00000000      -0.00000000       0.53109826
4
Lattice="4.64533100389554 1.3035823335164653e-16 6.735306448343452e-17 -7.057421123978284e-16 4.645331003895752 -9.966865383941469e-16 -2.5334573259078797e-16 -1.0262019525940934e-15 2.4518712076051425" Properties=species:S:1:pos:R:3:forces:R:3:energies:R:1 energy=1.2846112142074606 stress="-0.0009194482514394528 7.944760926458564e-17 -5.99998771952964e-17 7.944760926458564e-17 -0.0009194482513593046 -1.0809119228931988e-16 -5.99998771952964e-17 -1.0809119228931988e-16 0.00693290503059614" pbc="T T T"
Cu      -0.00000000      -0.00000000       0.00000000      -0.00000000       0.00000000      -0.00000000       0.15305751
Cu       0.00000000       2.32266550       1.22593560      -0.00000000      -0.00000000       0.00000000       0.31834042
Cu       2.32266550      -0.00000000       1.22593560       0.00000000      -0.00000000       0.00000000       0.31834042
Cu       2.32266550       2.32266550       1.22593560       0.00000000       0.00000000      -0.00000000       0.49487286
4
Lattice="4.649512970553782 -2.3915774090480624e-16 1.531927758074047e-16 -9.626170373259311e-16 4.649512970553763 -1.13505382223744e-15 -1.0415669621764823e-16 -9.72925801457162e-16 2.441574349378107" Properties=species:S:1:pos:R:3:forces:R:3:energies:R:1 energy=1.2837219079831517 stress="-9.685010334372856e-05 3.685443170390002e-17 -6.469098830050659e-17 3.685443170390002e-17 -9.685010334806726e-05 3.4509182720001207e-17 -6.469098830050659e-17 3.4509182720001207e-17 0.0005734362243440382" pbc="T T T"
Cu      -0.00000000      -0.00000000       0.00000000      -0.00000000       0.00000000      -0.00000000       0.15540856
Cu       0.00000000       2.32475649       1.22078717      -0.00000000      -0.00000000       0.00000000       0.31829751
Cu       2.32475649      -0.00000000       1.22078717       0.00000000      -0.00000000       0.00000000       0.31829751
Cu       2.32475649       2.32475649       1.22078717       0.00000000       0.00000000      -0.00000000       0.49171833
